 128
   1   1
    12.612907359999999    -0.000000000000000    -0.000000000000000
    -0.000000000000000    12.612907359999999    -0.000000000000000
    -0.000000000000000    -0.000000000000000    12.612907359999999
   1   2
     0.470359680000000     0.000000000000000    -0.000000000000000
    -0.000000000000000    -0.689641280000000    -1.154522560000000
     0.000000000000000    -1.154522560000000    -0.689641280000000
   1   3
     0.052111360000000    -0.000000000000000     0.000000000000000
    -0.000000000000000    -0.238410720000000    -0.293514400000000
     0.000000000000000    -0.293514400000000    -0.238410720000000
   1   4
     0.470359680000000    -0.000000000000000     0.000000000000000
     0.000000000000000    -0.689641280000000    -1.154522560000000
    -0.000000000000000    -1.154522560000000    -0.689641280000000
   1   5
    -0.689641280000000     0.000000000000000    -1.154522560000000
    -0.000000000000000     0.470359680000000    -0.000000000000000
    -1.154522560000000    -0.000000000000000    -0.689641280000000
   1   6
     0.005403040000000    -0.062571680000000    -0.116844640000000
    -0.062571680000000     0.005403040000000    -0.116844640000000
    -0.116844640000000    -0.116844640000000    -0.168772640000000
   1   7
     0.005403040000000     0.116844640000000     0.062571680000000
     0.116844640000000    -0.168772640000000    -0.116844640000000
     0.062571680000000    -0.116844640000000     0.005403040000000
   1   8
    -0.689641280000000     1.154522560000000     0.000000000000000
     1.154522560000000    -0.689641280000000    -0.000000000000000
    -0.000000000000000    -0.000000000000000     0.470359680000000
   1   9
    -0.238410720000000     0.000000000000000    -0.293514400000000
     0.000000000000000     0.052111360000000    -0.000000000000000
    -0.293514400000000    -0.000000000000000    -0.238410720000000
   1  10
    -0.168772640000000     0.116844640000000    -0.116844640000000
     0.116844640000000     0.005403040000000     0.062571680000000
    -0.116844640000000     0.062571680000000     0.005403040000000
   1  11
    -0.238410720000000     0.293514400000000    -0.000000000000000
     0.293514400000000    -0.238410720000000    -0.000000000000000
    -0.000000000000000    -0.000000000000000     0.052111360000000
   1  12
    -0.168772640000000     0.116844640000000    -0.116844640000000
     0.116844640000000     0.005403040000000     0.062571680000000
    -0.116844640000000     0.062571680000000     0.005403040000000
   1  13
    -0.689641280000000    -0.000000000000000    -1.154522560000000
     0.000000000000000     0.470359680000000    -0.000000000000000
    -1.154522560000000    -0.000000000000000    -0.689641280000000
   1  14
    -0.689641280000000     1.154522560000000    -0.000000000000000
     1.154522560000000    -0.689641280000000    -0.000000000000000
     0.000000000000000    -0.000000000000000     0.470359680000000
   1  15
     0.005403040000000     0.116844640000000     0.062571680000000
     0.116844640000000    -0.168772640000000    -0.116844640000000
     0.062571680000000    -0.116844640000000     0.005403040000000
   1  16
     0.005403040000000    -0.062571680000000    -0.116844640000000
    -0.062571680000000     0.005403040000000    -0.116844640000000
    -0.116844640000000    -0.116844640000000    -0.168772640000000
   1  17
    -0.689641280000000    -1.154522560000000    -0.000000000000000
    -1.154522560000000    -0.689641280000000     0.000000000000000
    -0.000000000000000    -0.000000000000000     0.470359680000000
   1  18
     0.005403040000000    -0.116844640000000    -0.062571680000000
    -0.116844640000000    -0.168772640000000    -0.116844640000000
    -0.062571680000000    -0.116844640000000     0.005403040000000
   1  19
     0.005403040000000     0.062571680000000     0.116844640000000
     0.062571680000000     0.005403040000000    -0.116844640000000
     0.116844640000000    -0.116844640000000    -0.168772640000000
   1  20
    -0.689641280000000    -0.000000000000000     1.154522560000000
     0.000000000000000     0.470359680000000     0.000000000000000
     1.154522560000000    -0.000000000000000    -0.689641280000000
   1  21
    -0.168772640000000    -0.116844640000000    -0.116844640000000
    -0.116844640000000     0.005403040000000    -0.062571680000000
    -0.116844640000000    -0.062571680000000     0.005403040000000
   1  22
    -0.053857920000000    -0.000000000000000    -0.000000000000000
    -0.000000000000000    -0.053857920000000    -0.000000000000000
    -0.000000000000000    -0.000000000000000    -0.053857920000000
   1  23
    -0.168772640000000     0.116844640000000     0.116844640000000
     0.116844640000000     0.005403040000000    -0.062571680000000
     0.116844640000000    -0.062571680000000     0.005403040000000
   1  24
    -0.377728480000000     0.000000000000000     0.000000000000000
    -0.000000000000000     0.160978080000000    -0.000000000000000
    -0.000000000000000    -0.000000000000000     0.160978080000000
   1  25
     0.005403040000000     0.062571680000000    -0.116844640000000
     0.062571680000000     0.005403040000000     0.116844640000000
    -0.116844640000000     0.116844640000000    -0.168772640000000
   1  26
     0.005403040000000     0.116844640000000    -0.062571680000000
     0.116844640000000    -0.168772640000000     0.116844640000000
    -0.062571680000000     0.116844640000000     0.005403040000000
   1  27
    -0.074888320000000     0.064746400000000     0.000000000000000
     0.064746400000000    -0.074888320000000    -0.000000000000000
     0.000000000000000     0.000000000000000     0.007366720000000
   1  28
    -0.074888320000000    -0.000000000000000    -0.064746400000000
    -0.000000000000000     0.007366720000000    -0.000000000000000
    -0.064746400000000     0.000000000000000    -0.074888320000000
   1  29
     0.470359680000000    -0.000000000000000    -0.000000000000000
     0.000000000000000    -0.689641280000000     1.154522560000000
    -0.000000000000000     1.154522560000000    -0.689641280000000
   1  30
     0.160978080000000    -0.000000000000000    -0.000000000000000
     0.000000000000000    -0.377728480000000     0.000000000000000
    -0.000000000000000    -0.000000000000000     0.160978080000000
   1  31
     0.007366720000000     0.000000000000000     0.000000000000000
    -0.000000000000000    -0.074888320000000    -0.064746400000000
    -0.000000000000000    -0.064746400000000    -0.074888320000000
   1  32
     0.160978080000000    -0.000000000000000     0.000000000000000
    -0.000000000000000     0.160978080000000     0.000000000000000
    -0.000000000000000    -0.000000000000000    -0.377728480000000
   1  33
    -0.238410720000000    -0.293514400000000     0.000000000000000
    -0.293514400000000    -0.238410720000000    -0.000000000000000
     0.000000000000000    -0.000000000000000     0.052111360000000
   1  34
    -0.168772640000000    -0.116844640000000     0.116844640000000
    -0.116844640000000     0.005403040000000     0.062571680000000
     0.116844640000000     0.062571680000000     0.005403040000000
   1  35
    -0.238410720000000    -0.000000000000000     0.293514400000000
    -0.000000000000000     0.052111360000000    -0.000000000000000
     0.293514400000000    -0.000000000000000    -0.238410720000000
   1  36
    -0.168772640000000    -0.116844640000000     0.116844640000000
    -0.116844640000000     0.005403040000000     0.062571680000000
     0.116844640000000     0.062571680000000     0.005403040000000
   1  37
     0.005403040000000    -0.116844640000000     0.062571680000000
    -0.116844640000000    -0.168772640000000     0.116844640000000
     0.062571680000000     0.116844640000000     0.005403040000000
   1  38
     0.005403040000000    -0.062571680000000     0.116844640000000
    -0.062571680000000     0.005403040000000     0.116844640000000
     0.116844640000000     0.116844640000000    -0.168772640000000
   1  39
    -0.074888320000000    -0.000000000000000     0.064746400000000
     0.000000000000000     0.007366720000000     0.000000000000000
     0.064746400000000     0.000000000000000    -0.074888320000000
   1  40
    -0.074888320000000    -0.064746400000000    -0.000000000000000
    -0.064746400000000    -0.074888320000000    -0.000000000000000
     0.000000000000000    -0.000000000000000     0.007366720000000
   1  41
     0.052111360000000    -0.000000000000000    -0.000000000000000
    -0.000000000000000    -0.238410720000000     0.293514400000000
    -0.000000000000000     0.293514400000000    -0.238410720000000
   1  42
     0.007366720000000     0.000000000000000     0.000000000000000
     0.000000000000000    -0.074888320000000     0.064746400000000
    -0.000000000000000     0.064746400000000    -0.074888320000000
   1  43
    -0.037146560000000    -0.000000000000000     0.000000000000000
    -0.000000000000000    -0.037146560000000    -0.000000000000000
     0.000000000000000    -0.000000000000000    -0.037146560000000
   1  44
     0.007366720000000     0.000000000000000    -0.000000000000000
     0.000000000000000    -0.074888320000000     0.064746400000000
     0.000000000000000     0.064746400000000    -0.074888320000000
   1  45
     0.005403040000000    -0.116844640000000     0.062571680000000
    -0.116844640000000    -0.168772640000000     0.116844640000000
     0.062571680000000     0.116844640000000     0.005403040000000
   1  46
    -0.074888320000000    -0.064746400000000     0.000000000000000
    -0.064746400000000    -0.074888320000000    -0.000000000000000
    -0.000000000000000    -0.000000000000000     0.007366720000000
   1  47
    -0.074888320000000     0.000000000000000     0.064746400000000
    -0.000000000000000     0.007366720000000     0.000000000000000
     0.064746400000000     0.000000000000000    -0.074888320000000
   1  48
     0.005403040000000    -0.062571680000000     0.116844640000000
    -0.062571680000000     0.005403040000000     0.116844640000000
     0.116844640000000     0.116844640000000    -0.168772640000000
   1  49
    -0.689641280000000    -1.154522560000000    -0.000000000000000
    -1.154522560000000    -0.689641280000000    -0.000000000000000
    -0.000000000000000     0.000000000000000     0.470359680000000
   1  50
    -0.689641280000000     0.000000000000000     1.154522560000000
    -0.000000000000000     0.470359680000000    -0.000000000000000
     1.154522560000000     0.000000000000000    -0.689641280000000
   1  51
     0.005403040000000     0.062571680000000     0.116844640000000
     0.062571680000000     0.005403040000000    -0.116844640000000
     0.116844640000000    -0.116844640000000    -0.168772640000000
   1  52
     0.005403040000000    -0.116844640000000    -0.062571680000000
    -0.116844640000000    -0.168772640000000    -0.116844640000000
    -0.062571680000000    -0.116844640000000     0.005403040000000
   1  53
     0.470359680000000     0.000000000000000    -0.000000000000000
    -0.000000000000000    -0.689641280000000     1.154522560000000
    -0.000000000000000     1.154522560000000    -0.689641280000000
   1  54
     0.160978080000000    -0.000000000000000    -0.000000000000000
    -0.000000000000000     0.160978080000000    -0.000000000000000
     0.000000000000000     0.000000000000000    -0.377728480000000
   1  55
     0.007366720000000    -0.000000000000000    -0.000000000000000
     0.000000000000000    -0.074888320000000    -0.064746400000000
     0.000000000000000    -0.064746400000000    -0.074888320000000
   1  56
     0.160978080000000     0.000000000000000    -0.000000000000000
    -0.000000000000000    -0.377728480000000    -0.000000000000000
    -0.000000000000000     0.000000000000000     0.160978080000000
   1  57
     0.005403040000000     0.062571680000000    -0.116844640000000
     0.062571680000000     0.005403040000000     0.116844640000000
    -0.116844640000000     0.116844640000000    -0.168772640000000
   1  58
    -0.074888320000000    -0.000000000000000    -0.064746400000000
    -0.000000000000000     0.007366720000000     0.000000000000000
    -0.064746400000000    -0.000000000000000    -0.074888320000000
   1  59
    -0.074888320000000     0.064746400000000     0.000000000000000
     0.064746400000000    -0.074888320000000     0.000000000000000
     0.000000000000000    -0.000000000000000     0.007366720000000
   1  60
     0.005403040000000     0.116844640000000    -0.062571680000000
     0.116844640000000    -0.168772640000000     0.116844640000000
    -0.062571680000000     0.116844640000000     0.005403040000000
   1  61
    -0.168772640000000    -0.116844640000000    -0.116844640000000
    -0.116844640000000     0.005403040000000    -0.062571680000000
    -0.116844640000000    -0.062571680000000     0.005403040000000
   1  62
    -0.377728480000000    -0.000000000000000    -0.000000000000000
     0.000000000000000     0.160978080000000    -0.000000000000000
     0.000000000000000    -0.000000000000000     0.160978080000000
   1  63
    -0.168772640000000     0.116844640000000     0.116844640000000
     0.116844640000000     0.005403040000000    -0.062571680000000
     0.116844640000000    -0.062571680000000     0.005403040000000
   1  64
    -0.053857920000000    -0.000000000000000    -0.000000000000000
    -0.000000000000000    -0.053857920000000    -0.000000000000000
    -0.000000000000000    -0.000000000000000    -0.053857920000000
   1  65
    -0.029469234223873     0.332969335381851     0.332969335381851
     0.332969335381851    -0.029469234223873     0.332969335381851
     0.332969335381851     0.332969335381851    -0.029469234223873
   1  66
     0.000089528984178    -0.000000000000000    -0.000000000000000
    -0.000000000000000     0.079160778448920     0.147759700370073
    -0.000000000000000     0.147759700370073     0.079160778448920
   1  67
    -0.029469234223873    -0.332969335381851    -0.332969335381851
    -0.332969335381851    -0.029469234223873     0.332969335381851
    -0.332969335381851     0.332969335381851    -0.029469234223873
   1  68
    -1.708000830485635     0.000000000000000     0.000000000000000
    -0.000000000000000    -1.440625674443605    -0.000000000000000
    -0.000000000000000    -0.000000000000000    -1.440625674443605
   1  69
     0.079160778448920    -0.000000000000000     0.147759700370073
    -0.000000000000000     0.000089528984178    -0.000000000000000
     0.147759700370073    -0.000000000000000     0.079160778448920
   1  70
     0.079160778448920    -0.147759700370073     0.000000000000000
    -0.147759700370073     0.079160778448920     0.000000000000000
     0.000000000000000     0.000000000000000     0.000089528984178
   1  71
     0.312909321314551    -0.147231992084475     0.000000000000000
    -0.334502174135195    -0.023106168733825     0.000000000000000
     0.000000000000000     0.000000000000000    -0.071418887722364
   1  72
     0.312909321314551     0.000000000000000     0.147231992084475
    -0.000000000000000    -0.071418887722364    -0.000000000000000
     0.334502174135195    -0.000000000000000    -0.023106168733825
   1  73
    -0.029469234223873    -0.332969335381851     0.332969335381851
    -0.332969335381851    -0.029469234223873    -0.332969335381851
     0.332969335381851    -0.332969335381851    -0.029469234223873
   1  74
    -0.023106168733825    -0.334502174135195    -0.000000000000000
    -0.147231992084475     0.312909321314551    -0.000000000000000
    -0.000000000000000    -0.000000000000000    -0.071418887722364
   1  75
     0.066851331926025    -0.053212163067636     0.053212163067636
    -0.053212163067636     0.066851331926025     0.053212163067636
     0.053212163067636     0.053212163067636     0.066851331926025
   1  76
    -0.023106168733825    -0.000000000000000     0.334502174135195
    -0.000000000000000    -0.071418887722364    -0.000000000000000
     0.147231992084475     0.000000000000000     0.312909321314551
   1  77
    -1.440625674443605    -0.000000000000000    -0.000000000000000
     0.000000000000000    -1.708000830485635     0.000000000000000
    -0.000000000000000    -0.000000000000000    -1.440625674443605
   1  78
    -0.071418887722364    -0.000000000000000     0.000000000000000
    -0.000000000000000     0.312909321314551     0.147231992084475
     0.000000000000000     0.334502174135195    -0.023106168733825
   1  79
    -0.071418887722364     0.000000000000000     0.000000000000000
     0.000000000000000    -0.023106168733825     0.334502174135195
    -0.000000000000000     0.147231992084475     0.312909321314551
   1  80
    -1.440625674443605    -0.000000000000000     0.000000000000000
    -0.000000000000000    -1.440625674443605     0.000000000000000
    -0.000000000000000    -0.000000000000000    -1.708000830485635
   1  81
     0.079160778448920     0.147759700370073    -0.000000000000000
     0.147759700370073     0.079160778448920    -0.000000000000000
    -0.000000000000000    -0.000000000000000     0.000089528984178
   1  82
     0.079160778448920     0.000000000000000    -0.147759700370073
     0.000000000000000     0.000089528984178     0.000000000000000
    -0.147759700370073     0.000000000000000     0.079160778448920
   1  83
     0.312909321314551    -0.000000000000000    -0.147231992084475
    -0.000000000000000    -0.071418887722364    -0.000000000000000
    -0.334502174135195    -0.000000000000000    -0.023106168733825
   1  84
     0.312909321314551     0.147231992084475    -0.000000000000000
     0.334502174135195    -0.023106168733825     0.000000000000000
    -0.000000000000000     0.000000000000000    -0.071418887722364
   1  85
     0.000089528984178    -0.000000000000000     0.000000000000000
     0.000000000000000     0.079160778448920    -0.147759700370073
     0.000000000000000    -0.147759700370073     0.079160778448920
   1  86
     0.066851331926025    -0.053212163067636    -0.053212163067636
    -0.053212163067636     0.066851331926025    -0.053212163067636
    -0.053212163067636    -0.053212163067636     0.066851331926025
   1  87
     0.148295099471491     0.000000000000000     0.000000000000000
     0.000000000000000     0.041204235965024     0.000000000000000
     0.000000000000000     0.000000000000000     0.041204235965024
   1  88
     0.066851331926025     0.053212163067636     0.053212163067636
     0.053212163067636     0.066851331926025    -0.053212163067636
     0.053212163067636    -0.053212163067636     0.066851331926025
   1  89
    -0.071418887722364     0.000000000000000     0.000000000000000
     0.000000000000000     0.312909321314551    -0.147231992084475
     0.000000000000000    -0.334502174135195    -0.023106168733825
   1  90
     0.041204235965024     0.000000000000000    -0.000000000000000
    -0.000000000000000     0.148295099471491    -0.000000000000000
    -0.000000000000000     0.000000000000000     0.041204235965024
   1  91
     0.041204235965024    -0.000000000000000    -0.000000000000000
     0.000000000000000     0.041204235965024    -0.000000000000000
    -0.000000000000000     0.000000000000000     0.148295099471491
   1  92
    -0.071418887722364     0.000000000000000    -0.000000000000000
     0.000000000000000    -0.023106168733825    -0.334502174135195
     0.000000000000000    -0.147231992084475     0.312909321314551
   1  93
    -0.023106168733825     0.334502174135195    -0.000000000000000
     0.147231992084475     0.312909321314551     0.000000000000000
    -0.000000000000000    -0.000000000000000    -0.071418887722364
   1  94
     0.066851331926025     0.053212163067636    -0.053212163067636
     0.053212163067636     0.066851331926025     0.053212163067636
    -0.053212163067636     0.053212163067636     0.066851331926025
   1  95
    -0.023106168733825    -0.000000000000000    -0.334502174135195
    -0.000000000000000    -0.071418887722364     0.000000000000000
    -0.147231992084475    -0.000000000000000     0.312909321314551
   1  96
    -0.029469234223873     0.332969335381851    -0.332969335381851
     0.332969335381851    -0.029469234223873    -0.332969335381851
    -0.332969335381851    -0.332969335381851    -0.029469234223873
   1  97
    -0.029469234223873     0.332969335381851    -0.332969335381851
     0.332969335381851    -0.029469234223873    -0.332969335381851
    -0.332969335381851    -0.332969335381851    -0.029469234223873
   1  98
    -0.023106168733825     0.000000000000000    -0.334502174135195
     0.000000000000000    -0.071418887722364     0.000000000000000
    -0.147231992084475     0.000000000000000     0.312909321314551
   1  99
     0.066851331926025     0.053212163067636    -0.053212163067636
     0.053212163067636     0.066851331926025     0.053212163067636
    -0.053212163067636     0.053212163067636     0.066851331926025
   1 100
    -0.023106168733825     0.334502174135195     0.000000000000000
     0.147231992084475     0.312909321314551    -0.000000000000000
     0.000000000000000     0.000000000000000    -0.071418887722364
   1 101
    -0.071418887722364    -0.000000000000000    -0.000000000000000
    -0.000000000000000    -0.023106168733825    -0.334502174135195
    -0.000000000000000    -0.147231992084475     0.312909321314551
   1 102
     0.041204235965024     0.000000000000000     0.000000000000000
    -0.000000000000000     0.041204235965024     0.000000000000000
     0.000000000000000    -0.000000000000000     0.148295099471491
   1 103
     0.041204235965024    -0.000000000000000    -0.000000000000000
     0.000000000000000     0.148295099471491     0.000000000000000
     0.000000000000000    -0.000000000000000     0.041204235965024
   1 104
    -0.071418887722364     0.000000000000000    -0.000000000000000
    -0.000000000000000     0.312909321314551    -0.147231992084475
    -0.000000000000000    -0.334502174135195    -0.023106168733825
   1 105
     0.066851331926025     0.053212163067636     0.053212163067636
     0.053212163067636     0.066851331926025    -0.053212163067636
     0.053212163067636    -0.053212163067636     0.066851331926025
   1 106
     0.148295099471491    -0.000000000000000    -0.000000000000000
    -0.000000000000000     0.041204235965024     0.000000000000000
    -0.000000000000000     0.000000000000000     0.041204235965024
   1 107
     0.066851331926025    -0.053212163067636    -0.053212163067636
    -0.053212163067636     0.066851331926025    -0.053212163067636
    -0.053212163067636    -0.053212163067636     0.066851331926025
   1 108
     0.000089528984178    -0.000000000000000     0.000000000000000
    -0.000000000000000     0.079160778448920    -0.147759700370073
    -0.000000000000000    -0.147759700370073     0.079160778448920
   1 109
     0.312909321314551     0.147231992084475     0.000000000000000
     0.334502174135195    -0.023106168733825    -0.000000000000000
    -0.000000000000000    -0.000000000000000    -0.071418887722364
   1 110
     0.312909321314551     0.000000000000000    -0.147231992084475
     0.000000000000000    -0.071418887722364     0.000000000000000
    -0.334502174135195     0.000000000000000    -0.023106168733825
   1 111
     0.079160778448920    -0.000000000000000    -0.147759700370073
     0.000000000000000     0.000089528984178    -0.000000000000000
    -0.147759700370073    -0.000000000000000     0.079160778448920
   1 112
     0.079160778448920     0.147759700370073     0.000000000000000
     0.147759700370073     0.079160778448920     0.000000000000000
    -0.000000000000000     0.000000000000000     0.000089528984178
   1 113
    -1.440625674443605    -0.000000000000000    -0.000000000000000
    -0.000000000000000    -1.440625674443605    -0.000000000000000
     0.000000000000000     0.000000000000000    -1.708000830485635
   1 114
    -0.071418887722364    -0.000000000000000     0.000000000000000
    -0.000000000000000    -0.023106168733825     0.334502174135195
     0.000000000000000     0.147231992084475     0.312909321314551
   1 115
    -0.071418887722364    -0.000000000000000    -0.000000000000000
     0.000000000000000     0.312909321314551     0.147231992084475
    -0.000000000000000     0.334502174135195    -0.023106168733825
   1 116
    -1.440625674443605     0.000000000000000    -0.000000000000000
    -0.000000000000000    -1.708000830485635    -0.000000000000000
    -0.000000000000000     0.000000000000000    -1.440625674443605
   1 117
    -0.023106168733825     0.000000000000000     0.334502174135195
     0.000000000000000    -0.071418887722364    -0.000000000000000
     0.147231992084475    -0.000000000000000     0.312909321314551
   1 118
     0.066851331926025    -0.053212163067636     0.053212163067636
    -0.053212163067636     0.066851331926025     0.053212163067636
     0.053212163067636     0.053212163067636     0.066851331926025
   1 119
    -0.023106168733825    -0.334502174135195     0.000000000000000
    -0.147231992084475     0.312909321314551     0.000000000000000
     0.000000000000000     0.000000000000000    -0.071418887722364
   1 120
    -0.029469234223873    -0.332969335381851     0.332969335381851
    -0.332969335381851    -0.029469234223873    -0.332969335381851
     0.332969335381851    -0.332969335381851    -0.029469234223873
   1 121
     0.312909321314551    -0.000000000000000     0.147231992084475
     0.000000000000000    -0.071418887722364     0.000000000000000
     0.334502174135195     0.000000000000000    -0.023106168733825
   1 122
     0.312909321314551    -0.147231992084475    -0.000000000000000
    -0.334502174135195    -0.023106168733825    -0.000000000000000
     0.000000000000000    -0.000000000000000    -0.071418887722364
   1 123
     0.079160778448920    -0.147759700370073    -0.000000000000000
    -0.147759700370073     0.079160778448920    -0.000000000000000
    -0.000000000000000     0.000000000000000     0.000089528984178
   1 124
     0.079160778448920     0.000000000000000     0.147759700370073
     0.000000000000000     0.000089528984178    -0.000000000000000
     0.147759700370073     0.000000000000000     0.079160778448920
   1 125
    -1.708000830485635    -0.000000000000000    -0.000000000000000
     0.000000000000000    -1.440625674443605    -0.000000000000000
     0.000000000000000    -0.000000000000000    -1.440625674443605
   1 126
    -0.029469234223873    -0.332969335381851    -0.332969335381851
    -0.332969335381851    -0.029469234223873     0.332969335381851
    -0.332969335381851     0.332969335381851    -0.029469234223873
   1 127
     0.000089528984178    -0.000000000000000     0.000000000000000
     0.000000000000000     0.079160778448920     0.147759700370073
     0.000000000000000     0.147759700370073     0.079160778448920
   1 128
    -0.029469234223873     0.332969335381851     0.332969335381851
     0.332969335381851    -0.029469234223873     0.332969335381851
     0.332969335381851     0.332969335381851    -0.029469234223873
   2   1
     0.470359680000000    -0.000000000000000     0.000000000000000
     0.000000000000000    -0.689641280000000    -1.154522560000000
    -0.000000000000000    -1.154522560000000    -0.689641280000000
   2   2
    12.612907359999999    -0.000000000000000    -0.000000000000000
    -0.000000000000000    12.612907359999999    -0.000000000000000
    -0.000000000000000    -0.000000000000000    12.612907359999999
   2   3
     0.470359680000000     0.000000000000000    -0.000000000000000
    -0.000000000000000    -0.689641280000000    -1.154522560000000
     0.000000000000000    -1.154522560000000    -0.689641280000000
   2   4
     0.052111360000000    -0.000000000000000     0.000000000000000
    -0.000000000000000    -0.238410720000000    -0.293514400000000
     0.000000000000000    -0.293514400000000    -0.238410720000000
   2   5
    -0.689641280000000     1.154522560000000     0.000000000000000
     1.154522560000000    -0.689641280000000    -0.000000000000000
    -0.000000000000000    -0.000000000000000     0.470359680000000
   2   6
    -0.689641280000000     0.000000000000000    -1.154522560000000
    -0.000000000000000     0.470359680000000    -0.000000000000000
    -1.154522560000000    -0.000000000000000    -0.689641280000000
   2   7
     0.005403040000000    -0.062571680000000    -0.116844640000000
    -0.062571680000000     0.005403040000000    -0.116844640000000
    -0.116844640000000    -0.116844640000000    -0.168772640000000
   2   8
     0.005403040000000     0.116844640000000     0.062571680000000
     0.116844640000000    -0.168772640000000    -0.116844640000000
     0.062571680000000    -0.116844640000000     0.005403040000000
   2   9
    -0.168772640000000     0.116844640000000    -0.116844640000000
     0.116844640000000     0.005403040000000     0.062571680000000
    -0.116844640000000     0.062571680000000     0.005403040000000
   2  10
    -0.238410720000000     0.000000000000000    -0.293514400000000
     0.000000000000000     0.052111360000000    -0.000000000000000
    -0.293514400000000    -0.000000000000000    -0.238410720000000
   2  11
    -0.168772640000000     0.116844640000000    -0.116844640000000
     0.116844640000000     0.005403040000000     0.062571680000000
    -0.116844640000000     0.062571680000000     0.005403040000000
   2  12
    -0.238410720000000     0.293514400000000    -0.000000000000000
     0.293514400000000    -0.238410720000000    -0.000000000000000
    -0.000000000000000    -0.000000000000000     0.052111360000000
   2  13
     0.005403040000000    -0.062571680000000    -0.116844640000000
    -0.062571680000000     0.005403040000000    -0.116844640000000
    -0.116844640000000    -0.116844640000000    -0.168772640000000
   2  14
    -0.689641280000000    -0.000000000000000    -1.154522560000000
     0.000000000000000     0.470359680000000    -0.000000000000000
    -1.154522560000000    -0.000000000000000    -0.689641280000000
   2  15
    -0.689641280000000     1.154522560000000    -0.000000000000000
     1.154522560000000    -0.689641280000000    -0.000000000000000