# Sigma = 0.150846
        0.0000000000        0.0001127157
        0.0200000000        0.0001290146
        0.0400000000        0.0001484353
        0.0600000000        0.0001716327
        0.0800000000        0.0001992711
        0.1000000000        0.0002319878
        0.1200000000        0.0002703602
        0.1400000000        0.0003148785
        0.1600000000        0.0003659308
        0.1800000000        0.0004238018
        0.2000000000        0.0004886867
        0.2200000000        0.0005607195
        0.2400000000        0.0006400095
        0.2600000000        0.0007266811
        0.2800000000        0.0008209071
        0.3000000000        0.0009229297
        0.3200000000        0.0010330590
        0.3400000000        0.0011516489
        0.3600000000        0.0012790465
        0.3800000000        0.0014155244
        0.4000000000        0.0015612022
        0.4200000000        0.0017159739
        0.4400000000        0.0018794549
        0.4600000000        0.0020509639
        0.4800000000        0.0022295509
        0.5000000000        0.0024140744
        0.5200000000        0.0026033261
        0.5400000000        0.0027961868
        0.5600000000        0.0029917972
        0.5800000000        0.0031897143
        0.6000000000        0.0033900301
        0.6200000000        0.0035934274
        0.6400000000        0.0038011602
        0.6600000000        0.0040149540
        0.6800000000        0.0042368359
        0.7000000000        0.0044689161
        0.7200000000        0.0047131511
        0.7400000000        0.0049711234
        0.7600000000        0.0052438702
        0.7800000000        0.0055317865
        0.8000000000        0.0058346156
        0.8200000000        0.0061515262
        0.8400000000        0.0064812594
        0.8600000000        0.0068223190
        0.8800000000        0.0071731716
        0.9000000000        0.0075324226
        0.9200000000        0.0078989416
        0.9400000000        0.0082719223
        0.9600000000        0.0086508765
        0.9800000000        0.0090355764
        1.0000000000        0.0094259716
        1.0200000000        0.0098221107
        1.0400000000        0.0102240951
        1.0600000000        0.0106320858
        1.0800000000        0.0110463648
        1.1000000000        0.0114674388
        1.1200000000        0.0118961573
        1.1400000000        0.0123338073
        1.1600000000        0.0127821470
        1.1800000000        0.0132433497
        1.2000000000        0.0137198477
        1.2200000000        0.0142140863
        1.2400000000        0.0147282216
        1.2600000000        0.0152638129
        1.2800000000        0.0158215660
        1.3000000000        0.0164011811
        1.3200000000        0.0170013407
        1.3400000000        0.0176198498
        1.3600000000        0.0182539113
        1.3800000000        0.0189004943
        1.4000000000        0.0195567364
        1.4200000000        0.0202203142
        1.4400000000        0.0208897265
        1.4600000000        0.0215644492
        1.4800000000        0.0222449517
        1.5000000000        0.0229325860
        1.5200000000        0.0236293843
        1.5400000000        0.0243378124
        1.5600000000        0.0250605279
        1.5800000000        0.0258001811
        1.6000000000        0.0265592814
        1.6200000000        0.0273401288
        1.6400000000        0.0281447950
        1.6600000000        0.0289751245
        1.6800000000        0.0298327254
        1.7000000000        0.0307189272
        1.7200000000        0.0316346976
        1.7400000000        0.0325805283
        1.7600000000        0.0335563175
        1.7800000000        0.0345612863
        1.8000000000        0.0355939672
        1.8200000000        0.0366522942
        1.8400000000        0.0377338041
        1.8600000000        0.0388359360
        1.8800000000        0.0399563949
        1.9000000000        0.0410935248
        1.9200000000        0.0422466347
        1.9400000000        0.0434162207
        1.9600000000        0.0446040481
        1.9800000000        0.0458130786
        2.0000000000        0.0470472529
        2.0200000000        0.0483111670
        2.0400000000        0.0496096901
        2.0600000000        0.0509475828
        2.0800000000        0.0523291646
        2.1000000000        0.0537580695
        2.1200000000        0.0552371067
        2.1400000000        0.0567682251
        2.1600000000        0.0583525661
        2.1800000000        0.0599905784
        2.2000000000        0.0616821693
        2.2200000000        0.0634268688
        2.2400000000        0.0652239953
        2.2600000000        0.0670728192
        2.2800000000        0.0689727286
        2.3000000000        0.0709234051
        2.3200000000        0.0729250162
        2.3400000000        0.0749784209
        2.3600000000        0.0770853820
        2.3800000000        0.0792487610
        2.4000000000        0.0814726725
        2.4200000000        0.0837625689
        2.4400000000        0.0861252316
        2.4600000000        0.0885686584
        2.4800000000        0.0911018515
        2.5000000000        0.0937345296
        2.5200000000        0.0964768042
        2.5400000000        0.0993388750
        2.5600000000        0.1023308029
        2.5800000000        0.1054624135
        2.6000000000        0.1087433747
        2.6200000000        0.1121834672
        2.6400000000        0.1157930445
        2.6600000000        0.1195836522
        2.6800000000        0.1235687555
        2.7000000000        0.1277645051
        2.7200000000        0.1321904657
        2.7400000000        0.1368702251
        2.7600000000        0.1418318064
        2.7800000000        0.1471078092
        2.8000000000        0.1527352126
        2.8200000000        0.1587547789
        2.8400000000        0.1652100085
        2.8600000000        0.1721456069
        2.8800000000        0.1796054541
        2.9000000000        0.1876300992
        2.9200000000        0.1962538529
        2.9400000000        0.2055016132
        2.9600000000        0.2153856228
        2.9800000000        0.2259024176
        3.0000000000        0.2370302684
        3.0200000000        0.2487274304
        3.0400000000        0.2609314926
        3.0600000000        0.2735600466
        3.0800000000        0.2865127918
        3.1000000000        0.2996750504
        3.1200000000        0.3129225194
        3.1400000000        0.3261269414
        3.1600000000        0.3391622620
        3.1800000000        0.3519107765
        3.2000000000        0.3642687583
        3.2200000000        0.3761511146
        3.2400000000        0.3874947189
        3.2600000000        0.3982602134
        3.2800000000        0.4084322318
        3.3000000000        0.4180181471
        3.3200000000        0.4270455768
        3.3400000000        0.4355589658
        3.3600000000        0.4436156134
        3.3800000000        0.4512815084
        3.4000000000        0.4586273056
        3.4200000000        0.4657247168
        3.4400000000        0.4726435168
        3.4600000000        0.4794492955
        3.4800000000        0.4862020123
        3.5000000000        0.4929553472
        3.5200000000        0.4997567858
        3.5400000000        0.5066483243
        3.5600000000        0.5136676390
        3.5800000000        0.5208495354
        3.6000000000        0.5282274810
        3.6200000000        0.5358350325
        3.6400000000        0.5437070049
        3.6600000000        0.5518802840
        3.6800000000        0.5603942550
        3.7000000000        0.5692908917
        3.7200000000        0.5786146057
        3.7400000000        0.5884119820
        3.7600000000        0.5987315111
        3.7800000000        0.6096233681
        3.8000000000        0.6211391944
        3.8200000000        0.6333317255
        3.8400000000        0.6462539985
        3.8600000000        0.6599578043
        3.8800000000        0.6744910310
        3.9000000000        0.6898936050
        3.9200000000        0.7061918722
        3.9400000000        0.7233914687
        3.9600000000        0.7414689839
        3.9800000000        0.7603629908
        4.0000000000        0.7799652686
        4.0200000000        0.8001132352
        4.0400000000        0.8205847027
        4.0600000000        0.8410960450
        4.0800000000        0.8613046949
        4.1000000000        0.8808165892
        4.1200000000        0.8991987458
        4.1400000000        0.9159966476
        4.1600000000        0.9307555594
        4.1800000000        0.9430443950
        4.2000000000        0.9524803435
        4.2200000000        0.9587522252
        4.2400000000        0.9616405217
        4.2600000000        0.9610322328
        4.2800000000        0.9569291417
        4.3000000000        0.9494486708
        4.3200000000        0.9388172151
        4.3400000000        0.9253565556
        4.3600000000        0.9094645952
        4.3800000000        0.8915921445
        4.4000000000        0.8722177669
        4.4200000000        0.8518227419
        4.4400000000        0.8308680477
        4.4600000000        0.8097749175
        4.4800000000        0.7889100655
        4.5000000000        0.7685761526
        4.5200000000        0.7490075441
        4.5400000000        0.7303709499
        4.5600000000        0.7127701710
        4.5800000000        0.6962539331
        4.6000000000        0.6808256743
        4.6200000000        0.6664541653
        4.6400000000        0.6530839642
        4.6600000000        0.6406449080
        4.6800000000        0.6290600940
        4.7000000000        0.6182520663
        4.7200000000        0.6081471598
        4.7400000000        0.5986781452
        4.7600000000        0.5897854455
        4.7800000000        0.5814172543
        4.8000000000        0.5735288952
        4.8200000000        0.5660817277
        4.8400000000        0.5590418576
        4.8600000000        0.5523788550
        4.8800000000        0.5460646398
        4.9000000000        0.5400726533
        4.9200000000        0.5343773968
        4.9400000000        0.5289543700
        4.9600000000        0.5237803877
        4.9800000000        0.5188341847
        5.0000000000        0.5140971586
        5.0200000000        0.5095540570
        5.0400000000        0.5051934068
        5.0600000000        0.5010075238
        5.0800000000        0.4969920205
        5.1000000000        0.4931448446
        5.1200000000        0.4894649955
        5.1400000000        0.4859511564
        5.1600000000        0.4826005200
        5.1800000000        0.4794080552
        5.2000000000        0.4763663749
        5.2200000000        0.4734662256
        5.2400000000        0.4706974759
        5.2600000000        0.4680503631
        5.2800000000        0.4655166919
        5.3000000000        0.4630906967
        5.3200000000        0.4607693638
        5.3400000000        0.4585521489
        5.3600000000        0.4564401739
        5.3800000000        0.4544351206
        5.4000000000        0.4525381056
        5.4200000000        0.4507488175
        5.4400000000        0.4490651217
        5.4600000000        0.4474832094
        5.4800000000        0.4459982220
        5.5000000000        0.4446051641
        5.5200000000        0.4432998466
        5.5400000000        0.4420796075
        5.5600000000        0.4409436266
        5.5800000000        0.4398927691
        5.6000000000        0.4389290243
        5.6200000000        0.4380547120
        5.6400000000        0.4372716920
        5.6600000000        0.4365807995
        5.6800000000        0.4359816661
        5.7000000000        0.4354729758
        5.7200000000        0.4350530854
        5.7400000000        0.4347208495
        5.7600000000        0.4344764369
        5.7800000000        0.4343219417
        5.8000000000        0.4342616534
        5.8200000000        0.4343019483
        5.8400000000        0.4344508646
        5.8600000000        0.4347174972
        5.8800000000        0.4351113799
        5.9000000000        0.4356419972
        5.9200000000        0.4363185019
        5.9400000000        0.4371496191
        5.9600000000        0.4381436225
        5.9800000000        0.4393082019
        6.0000000000        0.4406500104
        6.0200000000        0.4421737036
        6.0400000000        0.4438803452
        6.0600000000        0.4457651502
        6.0800000000        0.4478146375
        6.1000000000        0.4500033669
        6.1200000000        0.4522905125
        6.1400000000        0.4546165795
        6.1600000000        0.4569005983
        6.1800000000        0.4590381342
        6.2000000000        0.4609004318
        6.2200000000        0.4623349787
        6.2400000000        0.4631677165
        6.2600000000        0.4632070490
        6.2800000000        0.4622496999
        6.3000000000        0.4600883442
        6.3200000000        0.4565207976
        6.3400000000        0.4513603897
        6.3600000000        0.4444469976
        6.3800000000        0.4356580796
        6.4000000000        0.4249189535
        6.4200000000        0.4122115168
        6.4400000000        0.3975806262
        6.4600000000        0.3811374489
        6.4800000000        0.3630592653
        6.5000000000        0.3435854391
        6.5200000000        0.3230095573
        6.5400000000        0.3016680609
        6.5600000000        0.2799259978
        6.5800000000        0.2581608093
        6.6000000000        0.2367452643
        6.6200000000        0.2160307650
        6.6400000000        0.1963322326
        6.6600000000        0.1779156480
        6.6800000000        0.1609890761
        6.7000000000        0.1456976698
        6.7200000000        0.1321227768
        6.7400000000        0.1202848985
        6.7600000000        0.1101499242
        6.7800000000        0.1016378211
        6.8000000000        0.0946328322
        6.8200000000        0.0889942129
        6.8400000000        0.0845666315
        6.8600000000        0.0811895295
        6.8800000000        0.0787049574
        6.9000000000        0.0769636395
        6.9200000000        0.0758292306
        6.9400000000        0.0751808981
        6.9600000000        0.0749144766
        6.9800000000        0.0749424912
        7.0000000000        0.0751933512
        7.0200000000        0.0756099839
        7.0400000000        0.0761481275
        7.0600000000        0.0767744529
        7.0800000000        0.0774646419
        7.1000000000        0.0782015183
        7.1200000000        0.0789733129
        7.1400000000        0.0797721296
        7.1600000000        0.0805926694
        7.1800000000        0.0814312490
        7.2000000000        0.0822851272
        7.2200000000        0.0831521174
        7.2400000000        0.0840304353
        7.2600000000        0.0849187054
        7.2800000000        0.0858160375
        7.3000000000        0.0867220914
        7.3200000000        0.0876370692
        7.3400000000        0.0885616110
        7.3600000000        0.0894966020
        7.3800000000        0.0904429353
        7.4000000000        0.0914012881
        7.4200000000        0.0923719689
        7.4400000000        0.0933548749
        7.4600000000        0.0943495676
        7.4800000000        0.0953554441
        7.5000000000        0.0963719520
        7.5200000000        0.0973987866
        7.5400000000        0.0984360140
        7.5600000000        0.0994840881
        7.5800000000        0.1005437562
        7.6000000000        0.1016158852
        7.6200000000        0.1027012604
        7.6400000000        0.1038004138
        7.6600000000        0.1049135326
        7.6800000000        0.1060404717
        7.7000000000        0.1071808619
        7.7200000000        0.1083342800
        7.7400000000        0.1095004291
        7.7600000000        0.1106792751
        7.7800000000        0.1118711026
        7.8000000000        0.1130764765
        7.8200000000        0.1142961256
        7.8400000000        0.1155307864
        7.8600000000        0.1167810548
        7.8800000000        0.1180472886
        7.9000000000        0.1193295870
        7.9200000000        0.1206278491
        7.9400000000        0.1219418872
        7.9600000000        0.1232715607
        7.9800000000        0.1246168881
        8.0000000000        0.1259781070
        8.0200000000        0.1273556678
        8.0400000000        0.1287501694
        8.0600000000        0.1301622587
        8.0800000000        0.1315925281
        8.1000000000        0.1330414395
        8.1200000000        0.1345092952
        8.1400000000        0.1359962592
        8.1600000000        0.1375024186
        8.1800000000        0.1390278640
        8.2000000000        0.1405727637
        8.2200000000        0.1421374126
        8.2400000000        0.1437222446
        8.2600000000        0.1453278092
        8.2800000000        0.1469547223
        8.3000000000        0.1486036080
        8.3200000000        0.1502750476
        8.3400000000        0.1519695494
        8.3600000000        0.1536875446
        8.3800000000        0.1554294092
        8.4000000000        0.1571955031
        8.4200000000        0.1589862154
        8.4400000000        0.1608020042
        8.4600000000        0.1626434211
        8.4800000000        0.1645111152
        8.5000000000        0.1664058172
        8.5200000000        0.1683283101
        8.5400000000        0.1702793932
        8.5600000000        0.1722598527
        8.5800000000        0.1742704446
        8.6000000000        0.1763118969
        8.6200000000        0.1783849294
        8.6400000000        0.1804902865
        8.6600000000        0.1826287736
        8.6800000000        0.1848012876
        8.7000000000        0.1870088328
        8.7200000000        0.1892525195
        8.7400000000        0.1915335467
        8.7600000000        0.1938531763
        8.7800000000        0.1962127078
        8.8000000000        0.1986134647
        8.8200000000        0.2010567965
        8.8400000000        0.2035440988
        8.8600000000        0.2060768468
        8.8800000000        0.2086566331
        8.9000000000        0.2112852012
        8.9200000000        0.2139644672
        8.9400000000        0.2166965275
        8.9600000000        0.2194836559
        8.9800000000        0.2223282968
        9.0000000000        0.2252330637
        9.0200000000        0.2282007517
        9.0400000000        0.2312343666
        9.0600000000        0.2343371715
        9.0800000000        0.2375127454
        9.1000000000        0.2407650493
        9.1200000000        0.2440984934
        9.1400000000        0.2475180076
        9.1600000000        0.2510291174
        9.1800000000        0.2546380345
        9.2000000000        0.2583517742
        9.2200000000        0.2621783067
        9.2400000000        0.2661267505
        9.2600000000        0.2702076076
        9.2800000000        0.2744330343
        9.3000000000        0.2788171348
        9.3200000000        0.2833762589
        9.3400000000        0.2881292759
        9.3600000000        0.2930977876
        9.3800000000        0.2983062312
        9.4000000000        0.3037818040
        9.4200000000        0.3095541289
        9.4400000000        0.3156545605
        9.4600000000        0.3221150265
        9.4800000000        0.3289663023
        9.5000000000        0.3362356414
        9.5200000000        0.3439437275
        9.5400000000        0.3521009862
        9.5600000000        0.3607033834
        9.5800000000        0.3697279449
        9.6000000000        0.3791283418
        9.6200000000        0.3888309855
        9.6400000000        0.3987321452
        9.6600000000        0.4086966210
        9.6800000000        0.4185584610
        9.7000000000        0.4281240921
        9.7200000000        0.4371780406
        9.7400000000        0.4454911657
        9.7600000000        0.4528310439
        9.7800000000        0.4589738533
        9.8000000000        0.4637168715
        9.8200000000        0.4668905415
        9.8400000000        0.4683690203
        9.8600000000        0.4680782181
        9.8800000000        0.4660005476
        9.9000000000        0.4621759236
        9.9200000000        0.4566989269
        9.9400000000        0.4497124333
        9.9600000000        0.4413983467
        9.9800000000        0.4319663345
       10.0000000000        0.4216415992
       10.0200000000        0.4106527367
       10.0400000000        0.3992206298
       10.0600000000        0.3875491326
       10.0800000000        0.3758180504
       10.1000000000        0.3641786502
       10.1200000000        0.3527516796
       10.1400000000        0.3416276575
       10.1600000000        0.3308690415
       10.1800000000        0.3205137827
       10.2000000000        0.3105797486
       10.2200000000        0.3010695147
       10.2400000000        0.2919750909
       10.2600000000        0.2832822362
       10.2800000000        0.2749741224
       10.3000000000        0.2670342096
       10.3200000000        0.2594482946
       10.3400000000        0.2522057739
       10.3600000000        0.2453002184
       10.3800000000        0.2387293972
       10.4000000000        0.2324948982
       10.4200000000        0.2266014911
       10.4400000000        0.2210563596
       10.4600000000        0.2158683055
       10.4800000000        0.2110470008
       10.5000000000        0.2066023391
       10.5200000000        0.2025439179
       10.5400000000        0.1988806689
       10.5600000000        0.1956206389
       10.5800000000        0.1927709182
       10.6000000000        0.1903376962
       10.6200000000        0.1883264169
       10.6400000000        0.1867419917
       10.6600000000        0.1855890152
       10.6800000000        0.1848719240
       10.7000000000        0.1845950339
       10.7200000000        0.1847624019
       10.7400000000        0.1853774716
       10.7600000000        0.1864424883
       10.7800000000        0.1879576963
       10.8000000000        0.1899203652
       10.8200000000        0.1923237220
       10.8400000000        0.1951558893
       10.8600000000        0.1983989475
       10.8800000000        0.2020282405
       10.9000000000        0.2060120395
       10.9200000000        0.2103116525
       10.9400000000        0.2148820362
       10.9600000000        0.2196729211
       10.9800000000        0.2246304120
       11.0000000000        0.2296989733
       11.0200000000        0.2348236673
       11.0400000000        0.2399524750
       11.0600000000        0.2450385132
       11.0800000000        0.2500419632
       11.1000000000        0.2549315440
       11.1200000000        0.2596854078
       11.1400000000        0.2642913891
       11.1600000000        0.2687466015
       11.1800000000        0.2730564439
       11.2000000000        0.2772331344
       11.2200000000        0.2812939304
       11.2400000000        0.2852592176
       11.2600000000        0.2891506459
       11.2800000000        0.2929894672
       11.3000000000        0.2967951856
       11.3200000000        0.3005845815
       11.3400000000        0.3043711153
       11.3600000000        0.3081646745
       11.3800000000        0.3119715975
       11.4000000000        0.3157948964
       11.4200000000        0.3196346054
       11.4400000000        0.3234881966
       11.4600000000        0.3273510256
       11.4800000000        0.3312167836
       11.5000000000        0.3350779426
       11.5200000000        0.3389261795
       11.5400000000        0.3427527591
       11.5600000000        0.3465488482
       11.5800000000        0.3503057327
       11.6000000000        0.3540149157
       11.6200000000        0.3576680896
       11.6400000000        0.3612569966
       11.6600000000        0.3647732096
       11.6800000000        0.3682078784
       11.7000000000        0.3715514844
       11.7200000000        0.3747936324
       11.7400000000        0.3779228898
       11.7600000000        0.3809266603
       11.7800000000        0.3837910630
       11.8000000000        0.3865007893
       11.8200000000        0.3890389216
       11.8400000000        0.3913867242
       11.8600000000        0.3935234471
       11.8800000000        0.3954262082
       11.9000000000        0.3970700340
       11.9200000000        0.3984281343
       11.9400000000        0.3994724655
       11.9600000000        0.4001746020
       11.9800000000        0.4005068947
       12.0000000000        0.4004438567
       12.0200000000        0.3999636818
       12.0400000000        0.3990497861
       12.0600000000        0.3976922497
       12.0800000000        0.3958890437
       12.1000000000        0.3936469354
       12.1200000000        0.3909819859
       12.1400000000        0.3879195746
       12.1600000000        0.3844939160
       12.1800000000        0.3807470684
       12.2000000000        0.3767274714
       12.2200000000        0.3724880942
       12.2400000000        0.3680843164
       12.2600000000        0.3635716935
       12.2800000000        0.3590037785
       12.3000000000        0.3544301653
       12.3200000000        0.3498948981
       12.3400000000        0.3454353428
       12.3600000000        0.3410815658
       12.3800000000        0.3368562075
       12.4000000000        0.3327747866
       12.4200000000        0.3288463438
       12.4400000000        0.3250743137
       12.4600000000        0.3214575185
       12.4800000000        0.3179911929
       12.5000000000        0.3146679694
       12.5200000000        0.3114787739
       12.5400000000        0.3084135995
       12.5600000000        0.3054621420
       12.5800000000        0.3026142873
       12.6000000000        0.2998604561
       12.6200000000        0.2971918167
       12.6400000000        0.2946003880
       12.6600000000        0.2920790611
       12.6800000000        0.2896215696
       12.7000000000        0.2872224335
       12.7200000000        0.2848768957
       12.7400000000        0.2825808587
       12.7600000000        0.2803308189
       12.7800000000        0.2781237959
       12.8000000000        0.2759572542
       12.8200000000        0.2738290202
       12.8400000000        0.2717372042
       12.8600000000        0.2696801434
       12.8800000000        0.2676563752
       12.9000000000        0.2656646484
       12.9200000000        0.2637039708
       12.9400000000        0.2617736879
       12.9600000000        0.2598735914
       12.9800000000        0.2580040729
       13.0000000000        0.2561663576
       13.0200000000        0.2543628854
       13.0400000000        0.2525979368
       13.0600000000        0.2508786293
       13.0800000000        0.2492164376
       13.1000000000        0.2476294101
       13.1200000000        0.2461452794
       13.1400000000        0.2448056730
       13.1600000000        0.2436716355
       13.1800000000        0.2428306448
       13.2000000000        0.2424052272
       13.2200000000        0.2425631335
       13.2400000000        0.2435288050
       13.2600000000        0.2455955388
       13.2800000000        0.2491373642
       13.3000000000        0.2546192087
       13.3200000000        0.2626035189
       13.3400000000        0.2737511926
       13.3600000000        0.2888145598
       13.3800000000        0.3086203160
       13.4000000000        0.3340408276
       13.4200000000        0.3659531328
       13.4400000000        0.4051862242
       13.4600000000        0.4524587412
       13.4800000000        0.5083108539
       13.5000000000        0.5730356640
       13.5200000000        0.6466166358
       13.5400000000        0.7286781304
       13.5600000000        0.8184558609
       13.5800000000        0.9147929032
       13.6000000000        1.0161648172
       13.6200000000        1.1207346391
       13.6400000000        1.2264353262
       13.6600000000        1.3310740784
       13.6800000000        1.4324502906
       13.7000000000        1.5284771055
       13.7200000000        1.6172959209
       13.7400000000        1.6973738813
       13.7600000000        1.7675762473
       13.7800000000        1.8272083356
       13.8000000000        1.8760250384
       13.8200000000        1.9142093041
       13.8400000000        1.9423239431
       13.8600000000        1.9612433439
       13.8800000000        1.9720729407
       13.9000000000        1.9760644921
       13.9200000000        1.9745345202
       13.9400000000        1.9687918260
       13.9600000000        1.9600781293
       13.9800000000        1.9495238736
       14.0000000000        1.9381193574
       14.0200000000        1.9266998042
       14.0400000000        1.9159418824
       14.0600000000        1.9063685724
       14.0800000000        1.8983591286
       14.1000000000        1.8921611166
       14.1200000000        1.8879020306
       14.1400000000        1.8855987083
       14.1600000000        1.8851635645
       14.1800000000        1.8864074869
       14.2000000000        1.8890400080
       14.2200000000        1.8926680356
       14.2400000000        1.8967949351
       14.2600000000        1.9008220753
       14.2800000000        1.9040550098
       14.3000000000        1.9057162548
       14.3200000000        1.9049661099
       14.3400000000        1.9009321669
       14.3600000000        1.8927471253
       14.3800000000        1.8795933642
       14.4000000000        1.8607515623
       14.4200000000        1.8356496629
       14.4400000000        1.8039078165
       14.4600000000        1.7653747407
       14.4800000000        1.7201513000
       14.5000000000        1.6685980325
       14.5200000000        1.6113247625
       14.5400000000        1.5491621740
       14.5600000000        1.4831170721
       14.5800000000        1.4143147674
       14.6000000000        1.3439333733